LAMMPS (29 Sep 2021 - Update 3)
OMP_NUM_THREADS environment is not set. Defaulting to 1 thread. (src/comm.cpp:98)
  using 1 OpenMP thread(s) per MPI task
units		metal
atom_style	charge
dimension       3
boundary        p p p

read_data  	data.c-HfO2
Reading data file ...
  triclinic box = (0.0000000 0.0000000 0.0000000) to (25.344630 25.344630 25.344630) with tilt (0.0000000 0.0000000 0.0000000)
  4 by 6 by 6 MPI processor grid
  reading atoms ...
  1500 atoms
  read_data CPU = 0.082 seconds

mass		1 178.0
group    	type1 type 1
500 atoms in group type1
compute   	charge1 type1 property/atom q
compute   	q1 type1 reduce ave c_charge1
mass		2 16.00
group    	type2 type 2
1000 atoms in group type2
compute   	charge2 type2 property/atom q
compute   	q2 type2 reduce ave c_charge2

pair_style	comb
pair_coeff	* * ffield.comb Hf O
Reading comb potential file ffield.comb with DATE: 2011-02-22

neighbor	0.5 bin
neigh_modify	every 10 delay 10 check yes

timestep        0.00010

thermo_style	custom step temp etotal pe evdwl ecoul press vol lx ly lz xz c_q1 c_q2
thermo_modify	norm yes

fix		1 all nvt temp 300.0 300.0 0.1
thermo      	100
run    		100
Neighbor list info ...
  update every 10 steps, delay 10 steps, check yes
  max neighbors/atom: 2000, page size: 100000
  master list distance cutoff = 12.5
  ghost atom cutoff = 12.5
  binsize = 6.25, bins = 5 5 5
  1 neighbor lists, perpetual/occasional/extra = 1 0 0
  (1) pair comb, perpetual
      attributes: full, newton on
      pair build: full/bin/atomonly
      stencil: full/bin/3d
      bin: standard
Per MPI rank memory allocation (min/avg/max) = 6.780 | 6.792 | 6.799 Mbytes
Step Temp TotEng PotEng E_vdwl E_coul Press Volume Lx Ly Lz Xz c_q1 c_q2 
       0            0   -9.9494518   -9.9494518    3.2059618   -13.155414    53304.179     16280.13     25.34463     25.34463     25.34463            0         3.42        -1.71 
     100 1.8015277e-06   -9.9494518   -9.9494518    3.2059618   -13.155414    53304.179     16280.13     25.34463     25.34463     25.34463            0         3.42        -1.71 
Loop time of 0.127277 on 144 procs for 100 steps with 1500 atoms

Performance: 6.788 ns/day, 3.535 hours/ns, 785.689 timesteps/s
95.4% CPU use with 144 MPI tasks x 1 OpenMP threads

MPI task timing breakdown:
Section |  min time  |  avg time  |  max time  |%varavg| %total
---------------------------------------------------------------
Pair    | 0.035965   | 0.064388   | 0.1124     |   6.8 | 50.59
Neigh   | 0          | 0          | 0          |   0.0 |  0.00
Comm    | 0.011933   | 0.05966    | 0.087739   |   7.0 | 46.87
Output  | 0.00014454 | 0.00014638 | 0.0001704  |   0.0 |  0.12
Modify  | 0.0021984  | 0.0026947  | 0.0033149  |   0.5 |  2.12
Other   |            | 0.0003879  |            |       |  0.30

Nlocal:        10.4167 ave          18 max           6 min
Histogram: 24 20 18 26 8 18 14 8 4 4
Nghost:        2393.58 ave        2445 max        2307 min
Histogram: 16 0 0 0 64 0 0 0 0 64
Neighs:         0.00000 ave           0 max           0 min
Histogram: 144 0 0 0 0 0 0 0 0 0
FullNghs:      7555.56 ave       13056 max        4352 min
Histogram: 24 20 18 26 8 18 14 8 4 4

Total # of neighbors = 1088000
Ave neighs/atom = 725.33333
Neighbor list builds = 0
Dangerous builds = 0
fix  		2 all qeq/comb 1 0.003 file fq.out
run    		500
Per MPI rank memory allocation (min/avg/max) = 7.405 | 7.417 | 7.424 Mbytes
Step Temp TotEng PotEng E_vdwl E_coul Press Volume Lx Ly Lz Xz c_q1 c_q2 
     100 1.8015277e-06   -9.9494518   -9.9494518    3.2059618   -13.155414    53304.179     16280.13     25.34463     25.34463     25.34463            0    3.2991984   -1.6495992 
     200 3.0169072e-07   -10.020906   -10.020906      2.22531   -12.246216   -27700.647     16280.13     25.34463     25.34463     25.34463            0    3.2991984   -1.6495992 
     300 1.8945028e-06   -10.020906   -10.020906      2.22531   -12.246216   -27700.647     16280.13     25.34463     25.34463     25.34463            0    3.2991984   -1.6495992 
     400 6.5672781e-07   -10.020906   -10.020906      2.22531   -12.246216   -27700.647     16280.13     25.34463     25.34463     25.34463            0    3.2991984   -1.6495992 
     500 2.1561176e-06   -10.020906   -10.020906      2.22531   -12.246216   -27700.647     16280.13     25.34463     25.34463     25.34463            0    3.2991984   -1.6495992 
     600 6.9574766e-07   -10.020906   -10.020906      2.22531   -12.246216   -27700.647     16280.13     25.34463     25.34463     25.34463            0    3.2991984   -1.6495992 
Loop time of 0.94294 on 144 procs for 500 steps with 1500 atoms

Performance: 4.581 ns/day, 5.239 hours/ns, 530.257 timesteps/s
97.5% CPU use with 144 MPI tasks x 1 OpenMP threads

MPI task timing breakdown:
Section |  min time  |  avg time  |  max time  |%varavg| %total
---------------------------------------------------------------
Pair    | 0.18119    | 0.32137    | 0.56208    |  15.0 | 34.08
Neigh   | 0          | 0          | 0          |   0.0 |  0.00
Comm    | 0.05388    | 0.2923     | 0.43089    |  15.6 | 31.00
Output  | 0.00068078 | 0.00068545 | 0.00081512 |   0.0 |  0.07
Modify  | 0.32393    | 0.32699    | 0.32993    |   0.2 | 34.68
Other   |            | 0.0016     |            |       |  0.17

Nlocal:        10.4167 ave          18 max           6 min
Histogram: 24 20 18 26 8 18 14 8 4 4
Nghost:        2393.58 ave        2445 max        2307 min
Histogram: 16 0 0 0 64 0 0 0 0 64
Neighs:         0.00000 ave           0 max           0 min
Histogram: 144 0 0 0 0 0 0 0 0 0
FullNghs:      7555.56 ave       13056 max        4352 min
Histogram: 24 20 18 26 8 18 14 8 4 4

Total # of neighbors = 1088000
Ave neighs/atom = 725.33333
Neighbor list builds = 0
Dangerous builds = 0

unfix    	1
fix		1 all box/relax aniso 0.0 vmax 0.0002

# should minimize to higher tolerance in practice

minimize	1.0e-12  1.0e-18  1000  10000
WARNING: Using 'neigh_modify every 1 delay 0 check yes' setting during minimization (src/min.cpp:188)
Per MPI rank memory allocation (min/avg/max) = 8.530 | 8.542 | 8.549 Mbytes
Step Temp TotEng PotEng E_vdwl E_coul Press Volume Lx Ly Lz Xz c_q1 c_q2 
     600 6.9574766e-07   -10.020906   -10.020906      2.22531   -12.246216   -27700.647     16280.13     25.34463     25.34463     25.34463            0    3.2991984   -1.6495992 
     637 6.9574766e-07    -10.03234    -10.03234     2.148384   -12.180724    16.574697    15975.401    25.185501    25.185501    25.185501            0    3.2901898   -1.6450949 
Loop time of 0.192059 on 144 procs for 37 steps with 1500 atoms

98.2% CPU use with 144 MPI tasks x 1 OpenMP threads

Minimization stats:
  Stopping criterion = linesearch alpha is zero
  Energy initial, next-to-last, final = 
     -10.0209063064809  -10.0323401465569  -10.0323400320853
  Force two-norm initial, final = 487.52630 0.29498733
  Force max component initial, final = 281.47344 0.16631144
  Final line search alpha, max atom move = 0.0043451921 0.00072265517
  Iterations, force evaluations = 37 47

MPI task timing breakdown:
Section |  min time  |  avg time  |  max time  |%varavg| %total
---------------------------------------------------------------
Pair    | 0.022996   | 0.038339   | 0.063175   |   4.6 | 19.96
Neigh   | 0.00013146 | 0.0002196  | 0.00036523 |   0.0 |  0.11
Comm    | 0.0057947  | 0.030611   | 0.045858   |   5.1 | 15.94
Output  | 0          | 0          | 0          |   0.0 |  0.00
Modify  | 0.11408    | 0.11443    | 0.11479    |   0.0 | 59.58
Other   |            | 0.008462   |            |       |  4.41

Nlocal:        10.4167 ave          18 max           6 min
Histogram: 24 20 18 26 8 18 14 8 4 4
Nghost:        2393.58 ave        2445 max        2307 min
Histogram: 16 0 0 0 64 0 0 0 0 64
Neighs:         0.00000 ave           0 max           0 min
Histogram: 144 0 0 0 0 0 0 0 0 0
FullNghs:      7555.56 ave       13056 max        4352 min
Histogram: 24 20 18 26 8 18 14 8 4 4

Total # of neighbors = 1088000
Ave neighs/atom = 725.33333
Neighbor list builds = 1
Dangerous builds = 0
#minimize	1.0e-4  1.0e-6  1000  10000
min_modify	dmax 0.005 line quadratic

dump		1 all xyz 50000 *.xyz
dump_modify	1 element Hf O

#dump		1 all cfg 10 *.cfg id type xs ys zs q vx vy vz fx fy fz
#dump_modify	1 element Hf O

velocity	all create 300.1 2398378
thermo   	1000
run  		50000
Per MPI rank memory allocation (min/avg/max) = 7.422 | 7.434 | 7.441 Mbytes
Step Temp TotEng PotEng E_vdwl E_coul Press Volume Lx Ly Lz Xz c_q1 c_q2 
     637        300.1   -9.9935749    -10.03234     2.148384   -12.180724     3904.336    15975.401    25.185501    25.185501    25.185501            0    3.2901898   -1.6450949 
    1000        300.1   -9.9935749    -10.03234     2.148384   -12.180724     3904.336    15975.401    25.185501    25.185501    25.185501            0    3.2901898   -1.6450949 
    2000        300.1   -9.9935749    -10.03234     2.148384   -12.180724     3904.336    15975.401    25.185501    25.185501    25.185501            0    3.2901898   -1.6450949 
    3000        300.1   -9.9935749    -10.03234     2.148384   -12.180724     3904.336    15975.401    25.185501    25.185501    25.185501            0    3.2901898   -1.6450949 
    4000        300.1   -9.9935749    -10.03234     2.148384   -12.180724     3904.336    15975.401    25.185501    25.185501    25.185501            0    3.2901898   -1.6450949 
    5000        300.1   -9.9935749    -10.03234     2.148384   -12.180724     3904.336    15975.401    25.185501    25.185501    25.185501            0    3.2901898   -1.6450949 
    6000        300.1   -9.9935749    -10.03234     2.148384   -12.180724     3904.336    15975.401    25.185501    25.185501    25.185501            0    3.2901898   -1.6450949 
    7000        300.1   -9.9935749    -10.03234     2.148384   -12.180724     3904.336    15975.401    25.185501    25.185501    25.185501            0    3.2901898   -1.6450949 
    8000        300.1   -9.9935749    -10.03234     2.148384   -12.180724     3904.336    15975.401    25.185501    25.185501    25.185501            0    3.2901898   -1.6450949 
    9000        300.1   -9.9935749    -10.03234     2.148384   -12.180724     3904.336    15975.401    25.185501    25.185501    25.185501            0    3.2901898   -1.6450949 
   10000        300.1   -9.9935749    -10.03234     2.148384   -12.180724     3904.336    15975.401    25.185501    25.185501    25.185501            0    3.2901898   -1.6450949 
   11000        300.1   -9.9935749    -10.03234     2.148384   -12.180724     3904.336    15975.401    25.185501    25.185501    25.185501            0    3.2901898   -1.6450949 
   12000        300.1   -9.9935749    -10.03234     2.148384   -12.180724     3904.336    15975.401    25.185501    25.185501    25.185501            0    3.2901898   -1.6450949 
   13000        300.1   -9.9935749    -10.03234     2.148384   -12.180724     3904.336    15975.401    25.185501    25.185501    25.185501            0    3.2901898   -1.6450949 
   14000        300.1   -9.9935749    -10.03234     2.148384   -12.180724     3904.336    15975.401    25.185501    25.185501    25.185501            0    3.2901898   -1.6450949 
   15000        300.1   -9.9935749    -10.03234     2.148384   -12.180724     3904.336    15975.401    25.185501    25.185501    25.185501            0    3.2901898   -1.6450949 
   16000        300.1   -9.9935749    -10.03234     2.148384   -12.180724     3904.336    15975.401    25.185501    25.185501    25.185501            0    3.2901898   -1.6450949 
   17000        300.1   -9.9935749    -10.03234     2.148384   -12.180724     3904.336    15975.401    25.185501    25.185501    25.185501            0    3.2901898   -1.6450949 
   18000        300.1   -9.9935749    -10.03234     2.148384   -12.180724     3904.336    15975.401    25.185501    25.185501    25.185501            0    3.2901898   -1.6450949 
   19000        300.1   -9.9935749    -10.03234     2.148384   -12.180724     3904.336    15975.401    25.185501    25.185501    25.185501            0    3.2901898   -1.6450949 
   20000        300.1   -9.9935749    -10.03234     2.148384   -12.180724     3904.336    15975.401    25.185501    25.185501    25.185501            0    3.2901898   -1.6450949 
   21000        300.1   -9.9935749    -10.03234     2.148384   -12.180724     3904.336    15975.401    25.185501    25.185501    25.185501            0    3.2901898   -1.6450949 
   22000        300.1   -9.9935749    -10.03234     2.148384   -12.180724     3904.336    15975.401    25.185501    25.185501    25.185501            0    3.2901898   -1.6450949 
   23000        300.1   -9.9935749    -10.03234     2.148384   -12.180724     3904.336    15975.401    25.185501    25.185501    25.185501            0    3.2901898   -1.6450949 
   24000        300.1   -9.9935749    -10.03234     2.148384   -12.180724     3904.336    15975.401    25.185501    25.185501    25.185501            0    3.2901898   -1.6450949 
   25000        300.1   -9.9935749    -10.03234     2.148384   -12.180724     3904.336    15975.401    25.185501    25.185501    25.185501            0    3.2901898   -1.6450949 
   26000        300.1   -9.9935749    -10.03234     2.148384   -12.180724     3904.336    15975.401    25.185501    25.185501    25.185501            0    3.2901898   -1.6450949 
   27000        300.1   -9.9935749    -10.03234     2.148384   -12.180724     3904.336    15975.401    25.185501    25.185501    25.185501            0    3.2901898   -1.6450949 
   28000        300.1   -9.9935749    -10.03234     2.148384   -12.180724     3904.336    15975.401    25.185501    25.185501    25.185501            0    3.2901898   -1.6450949 
   29000        300.1   -9.9935749    -10.03234     2.148384   -12.180724     3904.336    15975.401    25.185501    25.185501    25.185501            0    3.2901898   -1.6450949 
   30000        300.1   -9.9935749    -10.03234     2.148384   -12.180724     3904.336    15975.401    25.185501    25.185501    25.185501            0    3.2901898   -1.6450949 
   31000        300.1   -9.9935749    -10.03234     2.148384   -12.180724     3904.336    15975.401    25.185501    25.185501    25.185501            0    3.2901898   -1.6450949 
   32000        300.1   -9.9935749    -10.03234     2.148384   -12.180724     3904.336    15975.401    25.185501    25.185501    25.185501            0    3.2901898   -1.6450949 
   33000        300.1   -9.9935749    -10.03234     2.148384   -12.180724     3904.336    15975.401    25.185501    25.185501    25.185501            0    3.2901898   -1.6450949 
   34000        300.1   -9.9935749    -10.03234     2.148384   -12.180724     3904.336    15975.401    25.185501    25.185501    25.185501            0    3.2901898   -1.6450949 
   35000        300.1   -9.9935749    -10.03234     2.148384   -12.180724     3904.336    15975.401    25.185501    25.185501    25.185501            0    3.2901898   -1.6450949 
   36000        300.1   -9.9935749    -10.03234     2.148384   -12.180724     3904.336    15975.401    25.185501    25.185501    25.185501            0    3.2901898   -1.6450949 
   37000        300.1   -9.9935749    -10.03234     2.148384   -12.180724     3904.336    15975.401    25.185501    25.185501    25.185501            0    3.2901898   -1.6450949 
   38000        300.1   -9.9935749    -10.03234     2.148384   -12.180724     3904.336    15975.401    25.185501    25.185501    25.185501            0    3.2901898   -1.6450949 
   39000        300.1   -9.9935749    -10.03234     2.148384   -12.180724     3904.336    15975.401    25.185501    25.185501    25.185501            0    3.2901898   -1.6450949 
   40000        300.1   -9.9935749    -10.03234     2.148384   -12.180724     3904.336    15975.401    25.185501    25.185501    25.185501            0    3.2901898   -1.6450949 
   41000        300.1   -9.9935749    -10.03234     2.148384   -12.180724     3904.336    15975.401    25.185501    25.185501    25.185501            0    3.2901898   -1.6450949 
   42000        300.1   -9.9935749    -10.03234     2.148384   -12.180724     3904.336    15975.401    25.185501    25.185501    25.185501            0    3.2901898   -1.6450949 
   43000        300.1   -9.9935749    -10.03234     2.148384   -12.180724     3904.336    15975.401    25.185501    25.185501    25.185501            0    3.2901898   -1.6450949 
   44000        300.1   -9.9935749    -10.03234     2.148384   -12.180724     3904.336    15975.401    25.185501    25.185501    25.185501            0    3.2901898   -1.6450949 
   45000        300.1   -9.9935749    -10.03234     2.148384   -12.180724     3904.336    15975.401    25.185501    25.185501    25.185501            0    3.2901898   -1.6450949 
   46000        300.1   -9.9935749    -10.03234     2.148384   -12.180724     3904.336    15975.401    25.185501    25.185501    25.185501            0    3.2901898   -1.6450949 
   47000        300.1   -9.9935749    -10.03234     2.148384   -12.180724     3904.336    15975.401    25.185501    25.185501    25.185501            0    3.2901898   -1.6450949 
   48000        300.1   -9.9935749    -10.03234     2.148384   -12.180724     3904.336    15975.401    25.185501    25.185501    25.185501            0    3.2901898   -1.6450949 
   49000        300.1   -9.9935749    -10.03234     2.148384   -12.180724     3904.336    15975.401    25.185501    25.185501    25.185501            0    3.2901898   -1.6450949 
   50000        300.1   -9.9935749    -10.03234     2.148384   -12.180724     3904.336    15975.401    25.185501    25.185501    25.185501            0    3.2901898   -1.6450949 
   50637        300.1   -9.9935749    -10.03234     2.148384   -12.180724     3904.336    15975.401    25.185501    25.185501    25.185501            0    3.2901898   -1.6450949 
Loop time of 98.6791 on 144 procs for 50000 steps with 1500 atoms

Performance: 4.378 ns/day, 5.482 hours/ns, 506.693 timesteps/s
99.7% CPU use with 144 MPI tasks x 1 OpenMP threads

MPI task timing breakdown:
Section |  min time  |  avg time  |  max time  |%varavg| %total
---------------------------------------------------------------
Pair    | 19.185     | 33.961     | 58.213     | 146.0 | 34.42
Neigh   | 0          | 0          | 0          |   0.0 |  0.00
Comm    | 6.026      | 30.084     | 44.624     | 153.3 | 30.49
Output  | 0.02345    | 0.024518   | 0.026155   |   0.1 |  0.02
Modify  | 34.042     | 34.439     | 34.757     |   2.8 | 34.90
Other   |            | 0.17       |            |       |  0.17

Nlocal:        10.4167 ave          18 max           6 min
Histogram: 24 20 18 26 8 18 14 8 4 4
Nghost:        2393.58 ave        2445 max        2307 min
Histogram: 16 0 0 0 64 0 0 0 0 64
Neighs:         0.00000 ave           0 max           0 min
Histogram: 144 0 0 0 0 0 0 0 0 0
FullNghs:      7555.56 ave       13056 max        4352 min
Histogram: 24 20 18 26 8 18 14 8 4 4

Total # of neighbors = 1088000
Ave neighs/atom = 725.33333
Neighbor list builds = 0
Dangerous builds = 0
Total wall time: 0:01:40
